
             +---------------------------------------------------+
             |                                                   |
             |                   WANNIER90                       |
             |                                                   |
             +---------------------------------------------------+
             |                                                   |
             |        Welcome to the Maximally-Localized         |
             |        Generalized Wannier Functions code         |
             |            http://www.wannier.org                 |
             |                                                   |
             |                                                   |
             |  Wannier90 Developer Group:                       |
             |    Giovanni Pizzi    (EPFL)                       |
             |    Valerio Vitale    (Cambridge)                  |
             |    David Vanderbilt  (Rutgers University)         |
             |    Nicola Marzari    (EPFL)                       |
             |    Ivo Souza         (Universidad del Pais Vasco) |
             |    Arash A. Mostofi  (Imperial College London)    |
             |    Jonathan R. Yates (University of Oxford)       |
             |                                                   |
             |  For the full list of Wannier90 3.x authors,      |
             |  please check the code documentation and the      |
             |  README on the GitHub page of the code            |
             |                                                   |
             |                                                   |
             |  Please cite                                      |
             |                                                   |
             |  [ref] "Wannier90 as a community code:            |
             |        new features and applications",            |
             |        G. Pizzi et al., J. Phys. Cond. Matt. 32,  |
             |        165902 (2020).                             |
             |        http://doi.org/10.1088/1361-648X/ab51ff    |
             |                                                   |
             |  in any publications arising from the use of      |
             |  this code. For the method please cite            |
             |                                                   |
             |  [ref] "Maximally Localized Generalised Wannier   |
             |         Functions for Composite Energy Bands"     |
             |         N. Marzari and D. Vanderbilt              |
             |         Phys. Rev. B 56 12847 (1997)              |
             |                                                   |
             |  [ref] "Maximally Localized Wannier Functions     |
             |         for Entangled Energy Bands"               |
             |         I. Souza, N. Marzari and D. Vanderbilt    |
             |         Phys. Rev. B 65 035109 (2001)             |
             |                                                   |
             |                                                   |
             | Copyright (c) 1996-2020                           |
             |        The Wannier90 Developer Group and          |
             |        individual contributors                    |
             |                                                   |
             |      Release: 3.1.0        5th March    2020      |
             |                                                   |
             | This program is free software; you can            |
             | redistribute it and/or modify it under the terms  |
             | of the GNU General Public License as published by |
             | the Free Software Foundation; either version 2 of |
             | the License, or (at your option) any later version|
             |                                                   |
             | This program is distributed in the hope that it   |
             | will be useful, but WITHOUT ANY WARRANTY; without |
             | even the implied warranty of MERCHANTABILITY or   |
             | FITNESS FOR A PARTICULAR PURPOSE. See the GNU     |
             | General Public License for more details.          |
             |                                                   |
             | You should have received a copy of the GNU General|
             | Public License along with this program; if not,   |
             | write to the Free Software Foundation, Inc.,      |
             | 675 Mass Ave, Cambridge, MA 02139, USA.           |
             |                                                   |
             +---------------------------------------------------+
             |    Execution started on  9Nov2020 at 12:17:38     |
             +---------------------------------------------------+
 
 ******************************************************************************
 * -> Using CODATA 2006 constant values                                       *
 *    (http://physics.nist.gov/cuu/Constants/index.html)                      *
 * -> Using Bohr value from CODATA                                            *
 ******************************************************************************
 

 Running in serial (with serial executable)

                                    ------
                                    SYSTEM
                                    ------

                              Lattice Vectors (Ang)
                    a_1    -2.714679   0.000000   2.714679
                    a_2     0.000000   2.714679   2.714679
                    a_3    -2.714679   2.714679   0.000000

                   Unit Cell Volume:      40.01156  (Ang^3)

                        Reciprocal-Space Vectors (Ang^-1)
                    b_1    -1.157261  -1.157261   1.157261
                    b_2     1.157261   1.157261   1.157261
                    b_3    -1.157261   1.157261  -1.157261
  
 *----------------------------------------------------------------------------*
 |   Site       Fractional Coordinate          Cartesian Coordinate (Ang)     |
 +----------------------------------------------------------------------------+
 | Si   1   0.00000   0.00000   0.00000   |    0.00000   0.00000   0.00000    |
 | Si   2  -0.25000   0.75000  -0.25000   |    1.35734   1.35734   1.35734    |
 *----------------------------------------------------------------------------*
                                ------------
                                K-POINT GRID
                                ------------
  
             Grid size =  4 x  4 x  4      Total points =   64
  
  
 *---------------------------------- MAIN ------------------------------------*
 |  Number of Wannier Functions               :                 4             |
 |  Number of Objective Wannier Functions     :                 4             |
 |  Number of input Bloch states              :                 4             |
 |  Output verbosity (1=low, 5=high)          :                 1             |
 |  Timing Level (1=low, 5=high)              :                 1             |
 |  Optimisation (0=memory, 3=speed)          :                 3             |
 |  Length Unit                               :               Ang             |
 |  Post-processing setup (write *.nnkp)      :                 F             |
 |  Using Gamma-only branch of algorithms     :                 F             |
 *----------------------------------------------------------------------------*
 *------------------------------- WANNIERISE ---------------------------------*
 |  Total number of iterations                :               500             |
 |  Number of CG steps before reset           :                 5             |
 |  Trial step length for line search         :             2.000             |
 |  Convergence tolerence                     :         0.100E-09             |
 |  Convergence window                        :                -1             |
 |  Iterations between writing output         :                50             |
 |  Iterations between backing up to disk     :               100             |
 |  Write r^2_nm to file                      :                 F             |
 |  Write xyz WF centres to file              :                 F             |
 |  Write on-site energies <0n|H|0n> to file  :                 F             |
 |  Use guiding centre to control phases      :                 F             |
 |  Use phases for initial projections        :                 F             |
 *----------------------------------------------------------------------------*
 Time to read parameters        0.006 (sec)

 *---------------------------------- K-MESH ----------------------------------*
 +----------------------------------------------------------------------------+
 |                    Distance to Nearest-Neighbour Shells                    |
 |                    ------------------------------------                    |
 |          Shell             Distance (Ang^-1)          Multiplicity         |
 |          -----             -----------------          ------------         |
 |             1                   0.501109                      8            |
 |             2                   0.578631                      6            |
 |             3                   0.818307                     12            |
 |             4                   0.959550                     24            |
 |             5                   1.002218                      8            |
 |             6                   1.157261                      6            |
 |             7                   1.261096                     24            |
 |             8                   1.293857                     24            |
 |             9                   1.417350                     24            |
 |            10                   1.503326                     32            |
 |            11                   1.636614                     12            |
 |            12                   1.711612                     48            |
 |            13                   1.735892                     30            |
 |            14                   1.829791                     24            |
 |            15                   1.897167                     24            |
 |            16                   1.919101                     24            |
 |            17                   2.004435                      8            |
 |            18                   2.066124                     48            |
 |            19                   2.086282                     24            |
 |            20                   2.165037                     48            |
 |            21                   2.222273                     72            |
 |            22                   2.314522                      6            |
 |            23                   2.368148                     24            |
 |            24                   2.385755                     48            |
 |            25                   2.454922                     36            |
 |            26                   2.505544                     56            |
 |            27                   2.522192                     24            |
 |            28                   2.587715                     24            |
 |            29                   2.635788                     72            |
 |            30                   2.651618                     48            |
 |            31                   2.714018                     24            |
 |            32                   2.759892                     48            |
 |            33                   2.834699                     24            |
 |            34                   2.878651                     72            |
 |            35                   2.893153                     30            |
 |            36                   2.950449                     72            |
 +----------------------------------------------------------------------------+
 | The b-vectors are chosen automatically                                     |
 | The following shells are used:   1                                         |
 +----------------------------------------------------------------------------+
 |                        Shell   # Nearest-Neighbours                        |
 |                        -----   --------------------                        |
 |                          1               8                                 |
 +----------------------------------------------------------------------------+
 | Completeness relation is fully satisfied [Eq. (B1), PRB 56, 12847 (1997)]  |
 +----------------------------------------------------------------------------+
 |                  b_k Vectors (Ang^-1) and Weights (Ang^2)                  |
 |                  ----------------------------------------                  |
 |            No.         b_k(x)      b_k(y)      b_k(z)        w_b           |
 |            ---        --------------------------------     --------        |
 |             1        -0.289315   -0.289315    0.289315     1.493369        |
 |             2         0.289315    0.289315   -0.289315     1.493369        |
 |             3         0.289315    0.289315    0.289315     1.493369        |
 |             4        -0.289315   -0.289315   -0.289315     1.493369        |
 |             5        -0.289315    0.289315   -0.289315     1.493369        |
 |             6        -0.289315    0.289315    0.289315     1.493369        |
 |             7         0.289315   -0.289315    0.289315     1.493369        |
 |             8         0.289315   -0.289315   -0.289315     1.493369        |
 +----------------------------------------------------------------------------+
 |                           b_k Directions (Ang^-1)                          |
 |                           -----------------------                          |
 |            No.           x           y           z                         |
 |            ---        --------------------------------                     |
 |             1        -0.289315   -0.289315    0.289315                     |
 |             2         0.289315    0.289315    0.289315                     |
 |             3        -0.289315    0.289315   -0.289315                     |
 |             4        -0.289315    0.289315    0.289315                     |
 +----------------------------------------------------------------------------+
  
 Time to get kmesh              0.308 (sec)
 *============================================================================*
 |                              MEMORY ESTIMATE                               |
 |         Maximum RAM allocated during each phase of the calculation         |
 *============================================================================*
 |                            Wannierise:            0.42 Mb                  |
 |                          plot_wannier:            0.42 Mb                  |
 *----------------------------------------------------------------------------*
  
 Starting a new Wannier90 calculation ...


 Reading overlaps from Si.mmn    : Generated by DFTK at 2020-11-09T12:12:32.488

 Reading projections from Si.amn : Generated by DFTK at 2020-11-09T12:14:13.03

 Time to read overlaps          0.013 (sec)

 Writing checkpoint file Si.chk... done


 *------------------------------- WANNIERISE ---------------------------------*
 +--------------------------------------------------------------------+<-- CONV
 | Iter  Delta Spread     RMS Gradient      Spread (Ang^2)      Time  |<-- CONV
 +--------------------------------------------------------------------+<-- CONV

 ------------------------------------------------------------------------------
 Initial State
  WF centre and spread    1  ( -0.313447, -0.309409,  0.710767 )     3.02505716
  WF centre and spread    2  (  0.716147, -0.288461, -0.288461 )     2.75075096
  WF centre and spread    3  ( -0.313447,  0.710767, -0.309409 )     3.02505716
  WF centre and spread    4  ( -0.137992, -0.133215, -0.133215 )     3.20581431
  Sum of centres and spreads ( -0.048740, -0.020319, -0.020319 )    12.00667958

      0     0.120E+02     0.0000000000       12.0066795849       0.00  <-- CONV
        O_D=      1.9386715 O_OD=      4.0675400 O_TOT=     12.0066796 <-- SPRD
 ------------------------------------------------------------------------------
 Cycle:      1
  WF centre and spread    1  ( -0.321637, -0.316061,  0.717756 )     2.33097141
  WF centre and spread    2  (  0.722430, -0.293233, -0.293233 )     2.28244630
  WF centre and spread    3  ( -0.321637,  0.717756, -0.316061 )     2.33097142
  WF centre and spread    4  ( -0.122823, -0.125635, -0.125635 )     2.75404650
  Sum of centres and spreads ( -0.043666, -0.017173, -0.017173 )     9.69843562

      1    -0.231E+01     1.6885827762        9.6984356249       0.03  <-- CONV
        O_D=      0.2065093 O_OD=      3.4914582 O_TOT=      9.6984356 <-- SPRD
 Delta: O_D= -0.1732162E+01 O_OD= -0.5760818E+00 O_TOT= -0.2308244E+01 <-- DLTA
 ------------------------------------------------------------------------------
 Cycle:     50
  WF centre and spread    1  ( -0.678670, -0.678670,  0.678670 )     1.64729222
  WF centre and spread    2  (  0.678670, -0.678670, -0.678670 )     1.77115091
  WF centre and spread    3  ( -0.678670,  0.678670, -0.678670 )     1.64729226
  WF centre and spread    4  (  0.678670,  0.678670,  0.678670 )     1.64729247
  Sum of centres and spreads (  0.000000,  0.000000,  0.000000 )     6.71302786

     50    -0.808E-13     0.0000004364        6.7130278589       0.18  <-- CONV
        O_D=      0.0000000 O_OD=      0.7125598 O_TOT=      6.7130279 <-- SPRD
 Delta: O_D= -0.5259533E-14 O_OD= -0.7549517E-13 O_TOT= -0.8082424E-13 <-- DLTA
 ------------------------------------------------------------------------------
 Cycle:    100
  WF centre and spread    1  ( -0.678670, -0.678670,  0.678670 )     1.64729226
  WF centre and spread    2  (  0.678670, -0.678670, -0.678670 )     1.77115093
  WF centre and spread    3  ( -0.678670,  0.678670, -0.678670 )     1.64729230
  WF centre and spread    4  (  0.678670,  0.678670,  0.678670 )     1.64729237
  Sum of centres and spreads (  0.000000,  0.000000, -0.000000 )     6.71302786

    100    -0.115E-13     0.0000001797        6.7130278589       0.28  <-- CONV
        O_D=      0.0000000 O_OD=      0.7125598 O_TOT=      6.7130279 <-- SPRD
 Delta: O_D= -0.1970095E-15 O_OD= -0.1088019E-13 O_TOT= -0.1154632E-13 <-- DLTA
 ------------------------------------------------------------------------------

 Writing checkpoint file Si.chk... done

 Cycle:    150
  WF centre and spread    1  ( -0.678670, -0.678670,  0.678670 )     1.64729228
  WF centre and spread    2  (  0.678670, -0.678670, -0.678670 )     1.77115093
  WF centre and spread    3  ( -0.678670,  0.678670, -0.678670 )     1.64729231
  WF centre and spread    4  (  0.678670,  0.678670,  0.678670 )     1.64729234
  Sum of centres and spreads (  0.000000,  0.000000, -0.000000 )     6.71302786

    150    -0.444E-14     0.0000001114        6.7130278589       0.37  <-- CONV
        O_D=      0.0000000 O_OD=      0.7125598 O_TOT=      6.7130279 <-- SPRD
 Delta: O_D= -0.2628970E-16 O_OD= -0.4218847E-14 O_TOT= -0.4440892E-14 <-- DLTA
 ------------------------------------------------------------------------------
 Cycle:    200
  WF centre and spread    1  ( -0.678670, -0.678670,  0.678670 )     1.64729228
  WF centre and spread    2  (  0.678670, -0.678670, -0.678670 )     1.77115093
  WF centre and spread    3  ( -0.678670,  0.678670, -0.678670 )     1.64729232
  WF centre and spread    4  (  0.678670,  0.678670,  0.678670 )     1.64729233
  Sum of centres and spreads (  0.000000, -0.000000, -0.000000 )     6.71302786

    200    -0.178E-14     0.0000000735        6.7130278589       0.46  <-- CONV
        O_D=      0.0000000 O_OD=      0.7125598 O_TOT=      6.7130279 <-- SPRD
 Delta: O_D= -0.2284113E-16 O_OD= -0.1221245E-14 O_TOT= -0.1776357E-14 <-- DLTA
 ------------------------------------------------------------------------------

 Writing checkpoint file Si.chk... done

 Cycle:    250
  WF centre and spread    1  ( -0.678670, -0.678670,  0.678670 )     1.64729228
  WF centre and spread    2  (  0.678670, -0.678670, -0.678670 )     1.77115093
  WF centre and spread    3  ( -0.678670,  0.678670, -0.678670 )     1.64729232
  WF centre and spread    4  (  0.678670,  0.678670,  0.678670 )     1.64729232
  Sum of centres and spreads (  0.000000, -0.000000, -0.000000 )     6.71302786

    250     0.000E+00     0.0000000532        6.7130278589       0.58  <-- CONV
        O_D=      0.0000000 O_OD=      0.7125598 O_TOT=      6.7130279 <-- SPRD
 Delta: O_D= -0.1772741E-16 O_OD=  0.2220446E-15 O_TOT=  0.0000000E+00 <-- DLTA
 ------------------------------------------------------------------------------
 Cycle:    300
  WF centre and spread    1  ( -0.678670, -0.678670,  0.678670 )     1.64729228
  WF centre and spread    2  (  0.678670, -0.678670, -0.678670 )     1.77115093
  WF centre and spread    3  ( -0.678670,  0.678670, -0.678670 )     1.64729232
  WF centre and spread    4  (  0.678670,  0.678670,  0.678670 )     1.64729232
  Sum of centres and spreads (  0.000000, -0.000000, -0.000000 )     6.71302786

    300    -0.178E-14     0.0000000381        6.7130278589       0.68  <-- CONV
        O_D=      0.0000000 O_OD=      0.7125598 O_TOT=      6.7130279 <-- SPRD
 Delta: O_D= -0.6847556E-19 O_OD= -0.1665335E-14 O_TOT= -0.1776357E-14 <-- DLTA
 ------------------------------------------------------------------------------

 Writing checkpoint file Si.chk... done

 Cycle:    350
  WF centre and spread    1  ( -0.678670, -0.678670,  0.678670 )     1.64729229
  WF centre and spread    2  (  0.678670, -0.678670, -0.678670 )     1.77115093
  WF centre and spread    3  ( -0.678670,  0.678670, -0.678670 )     1.64729232
  WF centre and spread    4  (  0.678670,  0.678670,  0.678670 )     1.64729232
  Sum of centres and spreads (  0.000000, -0.000000, -0.000000 )     6.71302786

    350     0.888E-15     0.0000000293        6.7130278589       0.79  <-- CONV
        O_D=      0.0000000 O_OD=      0.7125598 O_TOT=      6.7130279 <-- SPRD
 Delta: O_D= -0.3657248E-17 O_OD=  0.4440892E-15 O_TOT=  0.8881784E-15 <-- DLTA
 ------------------------------------------------------------------------------
 Cycle:    400
  WF centre and spread    1  ( -0.678670, -0.678670,  0.678670 )     1.64729229
  WF centre and spread    2  (  0.678670, -0.678670, -0.678670 )     1.77115093
  WF centre and spread    3  ( -0.678670,  0.678670, -0.678670 )     1.64729232
  WF centre and spread    4  (  0.678670,  0.678670,  0.678670 )     1.64729232
  Sum of centres and spreads (  0.000000, -0.000000, -0.000000 )     6.71302786

    400     0.888E-15     0.0000000213        6.7130278589       0.89  <-- CONV
        O_D=      0.0000000 O_OD=      0.7125598 O_TOT=      6.7130279 <-- SPRD
 Delta: O_D= -0.2907114E-17 O_OD=  0.6661338E-15 O_TOT=  0.8881784E-15 <-- DLTA
 ------------------------------------------------------------------------------

 Writing checkpoint file Si.chk... done

 Cycle:    450
  WF centre and spread    1  ( -0.678670, -0.678670,  0.678670 )     1.64729229
  WF centre and spread    2  (  0.678670, -0.678670, -0.678670 )     1.77115093
  WF centre and spread    3  ( -0.678670,  0.678670, -0.678670 )     1.64729232
  WF centre and spread    4  (  0.678670,  0.678670,  0.678670 )     1.64729231
  Sum of centres and spreads (  0.000000, -0.000000, -0.000000 )     6.71302786

    450    -0.178E-14     0.0000000148        6.7130278589       0.99  <-- CONV
        O_D=      0.0000000 O_OD=      0.7125598 O_TOT=      6.7130279 <-- SPRD
 Delta: O_D= -0.2352065E-18 O_OD= -0.1332268E-14 O_TOT= -0.1776357E-14 <-- DLTA
 ------------------------------------------------------------------------------
 Cycle:    500
  WF centre and spread    1  ( -0.678670, -0.678670,  0.678670 )     1.64729229
  WF centre and spread    2  (  0.678670, -0.678670, -0.678670 )     1.77115093
  WF centre and spread    3  ( -0.678670,  0.678670, -0.678670 )     1.64729232
  WF centre and spread    4  (  0.678670,  0.678670,  0.678670 )     1.64729231
  Sum of centres and spreads (  0.000000, -0.000000, -0.000000 )     6.71302786

    500     0.000E+00     0.0000000142        6.7130278589       1.11  <-- CONV
        O_D=      0.0000000 O_OD=      0.7125598 O_TOT=      6.7130279 <-- SPRD
 Delta: O_D= -0.1714445E-21 O_OD=  0.1110223E-15 O_TOT=  0.0000000E+00 <-- DLTA
 ------------------------------------------------------------------------------

 Writing checkpoint file Si.chk... done

 Final State
  WF centre and spread    1  ( -0.678670, -0.678670,  0.678670 )     1.64729229
  WF centre and spread    2  (  0.678670, -0.678670, -0.678670 )     1.77115093
  WF centre and spread    3  ( -0.678670,  0.678670, -0.678670 )     1.64729232
  WF centre and spread    4  (  0.678670,  0.678670,  0.678670 )     1.64729231
  Sum of centres and spreads (  0.000000, -0.000000, -0.000000 )     6.71302786

         Spreads (Ang^2)       Omega I      =     6.000468067
        ================       Omega D      =     0.000000000
                               Omega OD     =     0.712559792
    Final Spread (Ang^2)       Omega Total  =     6.713027859
 ------------------------------------------------------------------------------
 Time for wannierise            1.090 (sec)

 Writing checkpoint file Si.chk... done

 Time for plotting              0.000 (sec)
 Total Execution Time           1.418 (sec)

 *===========================================================================*
 |                             TIMING INFORMATION                            |
 *===========================================================================*
 |    Tag                                                Ncalls      Time (s)|
 |---------------------------------------------------------------------------|
 |kmesh: get                                        :         1         0.308|
 |overlap: allocate                                 :         1         0.000|
 |overlap: read                                     :         1         0.013|
 |wann: main                                        :         1         1.090|
 |plot: main                                        :         1         0.000|
 *---------------------------------------------------------------------------*

 All done: wannier90 exiting
